variables = "x", "y",  "v0",
ZONE N = 1681 E = 1600 ZONETYPE =fequadrilateral
DATAPACKING=BLOCK
VARLOCATION=([1-2]=NODAL,[3]=CELLCENTERED)

0
1
1
0
0.025
0.05
0.075
0.1
0.125
0.15
0.175
0.2
0.225
0.25
0.275
0.3
0.325
0.35
0.375
0.4
0.425
0.45
0.475
0.5
0.525
0.55
0.575
0.6
0.625
0.65
0.675
0.7
0.725
0.75
0.775
0.8
0.825
0.85
0.875
0.9
0.925
0.95
0.975
1
1
1
1
1
1
1
1
1
1
1
1
1
1
1
1
1
1
1
1
1
1
1
1
1
1
1
1
1
1
1
1
1
1
1
1
1
1
1
0.975
0.95
0.925
0.9
0.875
0.85
0.825
0.8
0.775
0.75
0.725
0.7
0.675
0.65
0.625
0.6
0.575
0.55
0.525
0.5
0.475
0.45
0.425
0.4
0.375
0.35
0.325
0.3
0.275
0.25
0.225
0.2
0.175
0.15
0.125
0.1
0.075
0.05
0.025
0
0
0
0
0
0
0
0
0
0
0
0
0
0
0
0
0
0
0
0
0
0
0
0
0
0
0
0
0
0
0
0
0
0
0
0
0
0
0
0.025
0.025
0.025
0.025
0.025
0.025
0.025
0.025
0.025
0.025
0.025
0.025
0.025
0.025
0.025
0.025
0.025
0.025
0.025
0.025
0.025
0.025
0.025
0.025
0.025
0.025
0.025
0.025
0.025
0.025
0.025
0.025
0.025
0.025
0.025
0.025
0.025
0.025
0.025
0.05
0.05
0.05
0.05
0.05
0.05
0.05
0.05
0.05
0.05
0.05
0.05
0.05
0.05
0.05
0.05
0.05
0.05
0.05
0.05
0.05
0.05
0.05
0.05
0.05
0.05
0.05
0.05
0.05
0.05
0.05
0.05
0.05
0.05
0.05
0.05
0.05
0.05
0.05
0.075
0.075
0.075
0.075
0.075
0.075
0.075
0.075
0.075
0.075
0.075
0.075
0.075
0.075
0.075
0.075
0.075
0.075
0.075
0.075
0.075
0.075
0.075
0.075
0.075
0.075
0.075
0.075
0.075
0.075
0.075
0.075
0.075
0.075
0.075
0.075
0.075
0.075
0.075
0.1
0.1
0.1
0.1
0.1
0.1
0.1
0.1
0.1
0.1
0.1
0.1
0.1
0.1
0.1
0.1
0.1
0.1
0.1
0.1
0.1
0.1
0.1
0.1
0.1
0.1
0.1
0.1
0.1
0.1
0.1
0.1
0.1
0.1
0.1
0.1
0.1
0.1
0.1
0.125
0.125
0.125
0.125
0.125
0.125
0.125
0.125
0.125
0.125
0.125
0.125
0.125
0.125
0.125
0.125
0.125
0.125
0.125
0.125
0.125
0.125
0.125
0.125
0.125
0.125
0.125
0.125
0.125
0.125
0.125
0.125
0.125
0.125
0.125
0.125
0.125
0.125
0.125
0.15
0.15
0.15
0.15
0.15
0.15
0.15
0.15
0.15
0.15
0.15
0.15
0.15
0.15
0.15
0.15
0.15
0.15
0.15
0.15
0.15
0.15
0.15
0.15
0.15
0.15
0.15
0.15
0.15
0.15
0.15
0.15
0.15
0.15
0.15
0.15
0.15
0.15
0.15
0.175
0.175
0.175
0.175
0.175
0.175
0.175
0.175
0.175
0.175
0.175
0.175
0.175
0.175
0.175
0.175
0.175
0.175
0.175
0.175
0.175
0.175
0.175
0.175
0.175
0.175
0.175
0.175
0.175
0.175
0.175
0.175
0.175
0.175
0.175
0.175
0.175
0.175
0.175
0.2
0.2
0.2
0.2
0.2
0.2
0.2
0.2
0.2
0.2
0.2
0.2
0.2
0.2
0.2
0.2
0.2
0.2
0.2
0.2
0.2
0.2
0.2
0.2
0.2
0.2
0.2
0.2
0.2
0.2
0.2
0.2
0.2
0.2
0.2
0.2
0.2
0.2
0.2
0.225
0.225
0.225
0.225
0.225
0.225
0.225
0.225
0.225
0.225
0.225
0.225
0.225
0.225
0.225
0.225
0.225
0.225
0.225
0.225
0.225
0.225
0.225
0.225
0.225
0.225
0.225
0.225
0.225
0.225
0.225
0.225
0.225
0.225
0.225
0.225
0.225
0.225
0.225
0.25
0.25
0.25
0.25
0.25
0.25
0.25
0.25
0.25
0.25
0.25
0.25
0.25
0.25
0.25
0.25
0.25
0.25
0.25
0.25
0.25
0.25
0.25
0.25
0.25
0.25
0.25
0.25
0.25
0.25
0.25
0.25
0.25
0.25
0.25
0.25
0.25
0.25
0.25
0.275
0.275
0.275
0.275
0.275
0.275
0.275
0.275
0.275
0.275
0.275
0.275
0.275
0.275
0.275
0.275
0.275
0.275
0.275
0.275
0.275
0.275
0.275
0.275
0.275
0.275
0.275
0.275
0.275
0.275
0.275
0.275
0.275
0.275
0.275
0.275
0.275
0.275
0.275
0.3
0.3
0.3
0.3
0.3
0.3
0.3
0.3
0.3
0.3
0.3
0.3
0.3
0.3
0.3
0.3
0.3
0.3
0.3
0.3
0.3
0.3
0.3
0.3
0.3
0.3
0.3
0.3
0.3
0.3
0.3
0.3
0.3
0.3
0.3
0.3
0.3
0.3
0.3
0.325
0.325
0.325
0.325
0.325
0.325
0.325
0.325
0.325
0.325
0.325
0.325
0.325
0.325
0.325
0.325
0.325
0.325
0.325
0.325
0.325
0.325
0.325
0.325
0.325
0.325
0.325
0.325
0.325
0.325
0.325
0.325
0.325
0.325
0.325
0.325
0.325
0.325
0.325
0.35
0.35
0.35
0.35
0.35
0.35
0.35
0.35
0.35
0.35
0.35
0.35
0.35
0.35
0.35
0.35
0.35
0.35
0.35
0.35
0.35
0.35
0.35
0.35
0.35
0.35
0.35
0.35
0.35
0.35
0.35
0.35
0.35
0.35
0.35
0.35
0.35
0.35
0.35
0.375
0.375
0.375
0.375
0.375
0.375
0.375
0.375
0.375
0.375
0.375
0.375
0.375
0.375
0.375
0.375
0.375
0.375
0.375
0.375
0.375
0.375
0.375
0.375
0.375
0.375
0.375
0.375
0.375
0.375
0.375
0.375
0.375
0.375
0.375
0.375
0.375
0.375
0.375
0.4
0.4
0.4
0.4
0.4
0.4
0.4
0.4
0.4
0.4
0.4
0.4
0.4
0.4
0.4
0.4
0.4
0.4
0.4
0.4
0.4
0.4
0.4
0.4
0.4
0.4
0.4
0.4
0.4
0.4
0.4
0.4
0.4
0.4
0.4
0.4
0.4
0.4
0.4
0.425
0.425
0.425
0.425
0.425
0.425
0.425
0.425
0.425
0.425
0.425
0.425
0.425
0.425
0.425
0.425
0.425
0.425
0.425
0.425
0.425
0.425
0.425
0.425
0.425
0.425
0.425
0.425
0.425
0.425
0.425
0.425
0.425
0.425
0.425
0.425
0.425
0.425
0.425
0.45
0.45
0.45
0.45
0.45
0.45
0.45
0.45
0.45
0.45
0.45
0.45
0.45
0.45
0.45
0.45
0.45
0.45
0.45
0.45
0.45
0.45
0.45
0.45
0.45
0.45
0.45
0.45
0.45
0.45
0.45
0.45
0.45
0.45
0.45
0.45
0.45
0.45
0.45
0.475
0.475
0.475
0.475
0.475
0.475
0.475
0.475
0.475
0.475
0.475
0.475
0.475
0.475
0.475
0.475
0.475
0.475
0.475
0.475
0.475
0.475
0.475
0.475
0.475
0.475
0.475
0.475
0.475
0.475
0.475
0.475
0.475
0.475
0.475
0.475
0.475
0.475
0.475
0.5
0.5
0.5
0.5
0.5
0.5
0.5
0.5
0.5
0.5
0.5
0.5
0.5
0.5
0.5
0.5
0.5
0.5
0.5
0.5
0.5
0.5
0.5
0.5
0.5
0.5
0.5
0.5
0.5
0.5
0.5
0.5
0.5
0.5
0.5
0.5
0.5
0.5
0.5
0.525
0.525
0.525
0.525
0.525
0.525
0.525
0.525
0.525
0.525
0.525
0.525
0.525
0.525
0.525
0.525
0.525
0.525
0.525
0.525
0.525
0.525
0.525
0.525
0.525
0.525
0.525
0.525
0.525
0.525
0.525
0.525
0.525
0.525
0.525
0.525
0.525
0.525
0.525
0.55
0.55
0.55
0.55
0.55
0.55
0.55
0.55
0.55
0.55
0.55
0.55
0.55
0.55
0.55
0.55
0.55
0.55
0.55
0.55
0.55
0.55
0.55
0.55
0.55
0.55
0.55
0.55
0.55
0.55
0.55
0.55
0.55
0.55
0.55
0.55
0.55
0.55
0.55
0.575
0.575
0.575
0.575
0.575
0.575
0.575
0.575
0.575
0.575
0.575
0.575
0.575
0.575
0.575
0.575
0.575
0.575
0.575
0.575
0.575
0.575
0.575
0.575
0.575
0.575
0.575
0.575
0.575
0.575
0.575
0.575
0.575
0.575
0.575
0.575
0.575
0.575
0.575
0.6
0.6
0.6
0.6
0.6
0.6
0.6
0.6
0.6
0.6
0.6
0.6
0.6
0.6
0.6
0.6
0.6
0.6
0.6
0.6
0.6
0.6
0.6
0.6
0.6
0.6
0.6
0.6
0.6
0.6
0.6
0.6
0.6
0.6
0.6
0.6
0.6
0.6
0.6
0.625
0.625
0.625
0.625
0.625
0.625
0.625
0.625
0.625
0.625
0.625
0.625
0.625
0.625
0.625
0.625
0.625
0.625
0.625
0.625
0.625
0.625
0.625
0.625
0.625
0.625
0.625
0.625
0.625
0.625
0.625
0.625
0.625
0.625
0.625
0.625
0.625
0.625
0.625
0.65
0.65
0.65
0.65
0.65
0.65
0.65
0.65
0.65
0.65
0.65
0.65
0.65
0.65
0.65
0.65
0.65
0.65
0.65
0.65
0.65
0.65
0.65
0.65
0.65
0.65
0.65
0.65
0.65
0.65
0.65
0.65
0.65
0.65
0.65
0.65
0.65
0.65
0.65
0.675
0.675
0.675
0.675
0.675
0.675
0.675
0.675
0.675
0.675
0.675
0.675
0.675
0.675
0.675
0.675
0.675
0.675
0.675
0.675
0.675
0.675
0.675
0.675
0.675
0.675
0.675
0.675
0.675
0.675
0.675
0.675
0.675
0.675
0.675
0.675
0.675
0.675
0.675
0.7
0.7
0.7
0.7
0.7
0.7
0.7
0.7
0.7
0.7
0.7
0.7
0.7
0.7
0.7
0.7
0.7
0.7
0.7
0.7
0.7
0.7
0.7
0.7
0.7
0.7
0.7
0.7
0.7
0.7
0.7
0.7
0.7
0.7
0.7
0.7
0.7
0.7
0.7
0.725
0.725
0.725
0.725
0.725
0.725
0.725
0.725
0.725
0.725
0.725
0.725
0.725
0.725
0.725
0.725
0.725
0.725
0.725
0.725
0.725
0.725
0.725
0.725
0.725
0.725
0.725
0.725
0.725
0.725
0.725
0.725
0.725
0.725
0.725
0.725
0.725
0.725
0.725
0.75
0.75
0.75
0.75
0.75
0.75
0.75
0.75
0.75
0.75
0.75
0.75
0.75
0.75
0.75
0.75
0.75
0.75
0.75
0.75
0.75
0.75
0.75
0.75
0.75
0.75
0.75
0.75
0.75
0.75
0.75
0.75
0.75
0.75
0.75
0.75
0.75
0.75
0.75
0.775
0.775
0.775
0.775
0.775
0.775
0.775
0.775
0.775
0.775
0.775
0.775
0.775
0.775
0.775
0.775
0.775
0.775
0.775
0.775
0.775
0.775
0.775
0.775
0.775
0.775
0.775
0.775
0.775
0.775
0.775
0.775
0.775
0.775
0.775
0.775
0.775
0.775
0.775
0.8
0.8
0.8
0.8
0.8
0.8
0.8
0.8
0.8
0.8
0.8
0.8
0.8
0.8
0.8
0.8
0.8
0.8
0.8
0.8
0.8
0.8
0.8
0.8
0.8
0.8
0.8
0.8
0.8
0.8
0.8
0.8
0.8
0.8
0.8
0.8
0.8
0.8
0.8
0.825
0.825
0.825
0.825
0.825
0.825
0.825
0.825
0.825
0.825
0.825
0.825
0.825
0.825
0.825
0.825
0.825
0.825
0.825
0.825
0.825
0.825
0.825
0.825
0.825
0.825
0.825
0.825
0.825
0.825
0.825
0.825
0.825
0.825
0.825
0.825
0.825
0.825
0.825
0.85
0.85
0.85
0.85
0.85
0.85
0.85
0.85
0.85
0.85
0.85
0.85
0.85
0.85
0.85
0.85
0.85
0.85
0.85
0.85
0.85
0.85
0.85
0.85
0.85
0.85
0.85
0.85
0.85
0.85
0.85
0.85
0.85
0.85
0.85
0.85
0.85
0.85
0.85
0.875
0.875
0.875
0.875
0.875
0.875
0.875
0.875
0.875
0.875
0.875
0.875
0.875
0.875
0.875
0.875
0.875
0.875
0.875
0.875
0.875
0.875
0.875
0.875
0.875
0.875
0.875
0.875
0.875
0.875
0.875
0.875
0.875
0.875
0.875
0.875
0.875
0.875
0.875
0.9
0.9
0.9
0.9
0.9
0.9
0.9
0.9
0.9
0.9
0.9
0.9
0.9
0.9
0.9
0.9
0.9
0.9
0.9
0.9
0.9
0.9
0.9
0.9
0.9
0.9
0.9
0.9
0.9
0.9
0.9
0.9
0.9
0.9
0.9
0.9
0.9
0.9
0.9
0.925
0.925
0.925
0.925
0.925
0.925
0.925
0.925
0.925
0.925
0.925
0.925
0.925
0.925
0.925
0.925
0.925
0.925
0.925
0.925
0.925
0.925
0.925
0.925
0.925
0.925
0.925
0.925
0.925
0.925
0.925
0.925
0.925
0.925
0.925
0.925
0.925
0.925
0.925
0.95
0.95
0.95
0.95
0.95
0.95
0.95
0.95
0.95
0.95
0.95
0.95
0.95
0.95
0.95
0.95
0.95
0.95
0.95
0.95
0.95
0.95
0.95
0.95
0.95
0.95
0.95
0.95
0.95
0.95
0.95
0.95
0.95
0.95
0.95
0.95
0.95
0.95
0.95
0.975
0.975
0.975
0.975
0.975
0.975
0.975
0.975
0.975
0.975
0.975
0.975
0.975
0.975
0.975
0.975
0.975
0.975
0.975
0.975
0.975
0.975
0.975
0.975
0.975
0.975
0.975
0.975
0.975
0.975
0.975
0.975
0.975
0.975
0.975
0.975
0.975
0.975
0.975

0
0
1
1
0
0
0
0
0
0
0
0
0
0
0
0
0
0
0
0
0
0
0
0
0
0
0
0
0
0
0
0
0
0
0
0
0
0
0
0
0
0
0
0.025
0.05
0.075
0.1
0.125
0.15
0.175
0.2
0.225
0.25
0.275
0.3
0.325
0.35
0.375
0.4
0.425
0.45
0.475
0.5
0.525
0.55
0.575
0.6
0.625
0.65
0.675
0.7
0.725
0.75
0.775
0.8
0.825
0.85
0.875
0.9
0.925
0.95
0.975
1
1
1
1
1
1
1
1
1
1
1
1
1
1
1
1
1
1
1
1
1
1
1
1
1
1
1
1
1
1
1
1
1
1
1
1
1
1
1
0.975
0.95
0.925
0.9
0.875
0.85
0.825
0.8
0.775
0.75
0.725
0.7
0.675
0.65
0.625
0.6
0.575
0.55
0.525
0.5
0.475
0.45
0.425
0.4
0.375
0.35
0.325
0.3
0.275
0.25
0.225
0.2
0.175
0.15
0.125
0.1
0.075
0.05
0.025
0.025
0.05
0.075
0.1
0.125
0.15
0.175
0.2
0.225
0.25
0.275
0.3
0.325
0.35
0.375
0.4
0.425
0.45
0.475
0.5
0.525
0.55
0.575
0.6
0.625
0.65
0.675
0.7
0.725
0.75
0.775
0.8
0.825
0.85
0.875
0.9
0.925
0.95
0.975
0.025
0.05
0.075
0.1
0.125
0.15
0.175
0.2
0.225
0.25
0.275
0.3
0.325
0.35
0.375
0.4
0.425
0.45
0.475
0.5
0.525
0.55
0.575
0.6
0.625
0.65
0.675
0.7
0.725
0.75
0.775
0.8
0.825
0.85
0.875
0.9
0.925
0.95
0.975
0.025
0.05
0.075
0.1
0.125
0.15
0.175
0.2
0.225
0.25
0.275
0.3
0.325
0.35
0.375
0.4
0.425
0.45
0.475
0.5
0.525
0.55
0.575
0.6
0.625
0.65
0.675
0.7
0.725
0.75
0.775
0.8
0.825
0.85
0.875
0.9
0.925
0.95
0.975
0.025
0.05
0.075
0.1
0.125
0.15
0.175
0.2
0.225
0.25
0.275
0.3
0.325
0.35
0.375
0.4
0.425
0.45
0.475
0.5
0.525
0.55
0.575
0.6
0.625
0.65
0.675
0.7
0.725
0.75
0.775
0.8
0.825
0.85
0.875
0.9
0.925
0.95
0.975
0.025
0.05
0.075
0.1
0.125
0.15
0.175
0.2
0.225
0.25
0.275
0.3
0.325
0.35
0.375
0.4
0.425
0.45
0.475
0.5
0.525
0.55
0.575
0.6
0.625
0.65
0.675
0.7
0.725
0.75
0.775
0.8
0.825
0.85
0.875
0.9
0.925
0.95
0.975
0.025
0.05
0.075
0.1
0.125
0.15
0.175
0.2
0.225
0.25
0.275
0.3
0.325
0.35
0.375
0.4
0.425
0.45
0.475
0.5
0.525
0.55
0.575
0.6
0.625
0.65
0.675
0.7
0.725
0.75
0.775
0.8
0.825
0.85
0.875
0.9
0.925
0.95
0.975
0.025
0.05
0.075
0.1
0.125
0.15
0.175
0.2
0.225
0.25
0.275
0.3
0.325
0.35
0.375
0.4
0.425
0.45
0.475
0.5
0.525
0.55
0.575
0.6
0.625
0.65
0.675
0.7
0.725
0.75
0.775
0.8
0.825
0.85
0.875
0.9
0.925
0.95
0.975
0.025
0.05
0.075
0.1
0.125
0.15
0.175
0.2
0.225
0.25
0.275
0.3
0.325
0.35
0.375
0.4
0.425
0.45
0.475
0.5
0.525
0.55
0.575
0.6
0.625
0.65
0.675
0.7
0.725
0.75
0.775
0.8
0.825
0.85
0.875
0.9
0.925
0.95
0.975
0.025
0.05
0.075
0.1
0.125
0.15
0.175
0.2
0.225
0.25
0.275
0.3
0.325
0.35
0.375
0.4
0.425
0.45
0.475
0.5
0.525
0.55
0.575
0.6
0.625
0.65
0.675
0.7
0.725
0.75
0.775
0.8
0.825
0.85
0.875
0.9
0.925
0.95
0.975
0.025
0.05
0.075
0.1
0.125
0.15
0.175
0.2
0.225
0.25
0.275
0.3
0.325
0.35
0.375
0.4
0.425
0.45
0.475
0.5
0.525
0.55
0.575
0.6
0.625
0.65
0.675
0.7
0.725
0.75
0.775
0.8
0.825
0.85
0.875
0.9
0.925
0.95
0.975
0.025
0.05
0.075
0.1
0.125
0.15
0.175
0.2
0.225
0.25
0.275
0.3
0.325
0.35
0.375
0.4
0.425
0.45
0.475
0.5
0.525
0.55
0.575
0.6
0.625
0.65
0.675
0.7
0.725
0.75
0.775
0.8
0.825
0.85
0.875
0.9
0.925
0.95
0.975
0.025
0.05
0.075
0.1
0.125
0.15
0.175
0.2
0.225
0.25
0.275
0.3
0.325
0.35
0.375
0.4
0.425
0.45
0.475
0.5
0.525
0.55
0.575
0.6
0.625
0.65
0.675
0.7
0.725
0.75
0.775
0.8
0.825
0.85
0.875
0.9
0.925
0.95
0.975
0.025
0.05
0.075
0.1
0.125
0.15
0.175
0.2
0.225
0.25
0.275
0.3
0.325
0.35
0.375
0.4
0.425
0.45
0.475
0.5
0.525
0.55
0.575
0.6
0.625
0.65
0.675
0.7
0.725
0.75
0.775
0.8
0.825
0.85
0.875
0.9
0.925
0.95
0.975
0.025
0.05
0.075
0.1
0.125
0.15
0.175
0.2
0.225
0.25
0.275
0.3
0.325
0.35
0.375
0.4
0.425
0.45
0.475
0.5
0.525
0.55
0.575
0.6
0.625
0.65
0.675
0.7
0.725
0.75
0.775
0.8
0.825
0.85
0.875
0.9
0.925
0.95
0.975
0.025
0.05
0.075
0.1
0.125
0.15
0.175
0.2
0.225
0.25
0.275
0.3
0.325
0.35
0.375
0.4
0.425
0.45
0.475
0.5
0.525
0.55
0.575
0.6
0.625
0.65
0.675
0.7
0.725
0.75
0.775
0.8
0.825
0.85
0.875
0.9
0.925
0.95
0.975
0.025
0.05
0.075
0.1
0.125
0.15
0.175
0.2
0.225
0.25
0.275
0.3
0.325
0.35
0.375
0.4
0.425
0.45
0.475
0.5
0.525
0.55
0.575
0.6
0.625
0.65
0.675
0.7
0.725
0.75
0.775
0.8
0.825
0.85
0.875
0.9
0.925
0.95
0.975
0.025
0.05
0.075
0.1
0.125
0.15
0.175
0.2
0.225
0.25
0.275
0.3
0.325
0.35
0.375
0.4
0.425
0.45
0.475
0.5
0.525
0.55
0.575
0.6
0.625
0.65
0.675
0.7
0.725
0.75
0.775
0.8
0.825
0.85
0.875
0.9
0.925
0.95
0.975
0.025
0.05
0.075
0.1
0.125
0.15
0.175
0.2
0.225
0.25
0.275
0.3
0.325
0.35
0.375
0.4
0.425
0.45
0.475
0.5
0.525
0.55
0.575
0.6
0.625
0.65
0.675
0.7
0.725
0.75
0.775
0.8
0.825
0.85
0.875
0.9
0.925
0.95
0.975
0.025
0.05
0.075
0.1
0.125
0.15
0.175
0.2
0.225
0.25
0.275
0.3
0.325
0.35
0.375
0.4
0.425
0.45
0.475
0.5
0.525
0.55
0.575
0.6
0.625
0.65
0.675
0.7
0.725
0.75
0.775
0.8
0.825
0.85
0.875
0.9
0.925
0.95
0.975
0.025
0.05
0.075
0.1
0.125
0.15
0.175
0.2
0.225
0.25
0.275
0.3
0.325
0.35
0.375
0.4
0.425
0.45
0.475
0.5
0.525
0.55
0.575
0.6
0.625
0.65
0.675
0.7
0.725
0.75
0.775
0.8
0.825
0.85
0.875
0.9
0.925
0.95
0.975
0.025
0.05
0.075
0.1
0.125
0.15
0.175
0.2
0.225
0.25
0.275
0.3
0.325
0.35
0.375
0.4
0.425
0.45
0.475
0.5
0.525
0.55
0.575
0.6
0.625
0.65
0.675
0.7
0.725
0.75
0.775
0.8
0.825
0.85
0.875
0.9
0.925
0.95
0.975
0.025
0.05
0.075
0.1
0.125
0.15
0.175
0.2
0.225
0.25
0.275
0.3
0.325
0.35
0.375
0.4
0.425
0.45
0.475
0.5
0.525
0.55
0.575
0.6
0.625
0.65
0.675
0.7
0.725
0.75
0.775
0.8
0.825
0.85
0.875
0.9
0.925
0.95
0.975
0.025
0.05
0.075
0.1
0.125
0.15
0.175
0.2
0.225
0.25
0.275
0.3
0.325
0.35
0.375
0.4
0.425
0.45
0.475
0.5
0.525
0.55
0.575
0.6
0.625
0.65
0.675
0.7
0.725
0.75
0.775
0.8
0.825
0.85
0.875
0.9
0.925
0.95
0.975
0.025
0.05
0.075
0.1
0.125
0.15
0.175
0.2
0.225
0.25
0.275
0.3
0.325
0.35
0.375
0.4
0.425
0.45
0.475
0.5
0.525
0.55
0.575
0.6
0.625
0.65
0.675
0.7
0.725
0.75
0.775
0.8
0.825
0.85
0.875
0.9
0.925
0.95
0.975
0.025
0.05
0.075
0.1
0.125
0.15
0.175
0.2
0.225
0.25
0.275
0.3
0.325
0.35
0.375
0.4
0.425
0.45
0.475
0.5
0.525
0.55
0.575
0.6
0.625
0.65
0.675
0.7
0.725
0.75
0.775
0.8
0.825
0.85
0.875
0.9
0.925
0.95
0.975
0.025
0.05
0.075
0.1
0.125
0.15
0.175
0.2
0.225
0.25
0.275
0.3
0.325
0.35
0.375
0.4
0.425
0.45
0.475
0.5
0.525
0.55
0.575
0.6
0.625
0.65
0.675
0.7
0.725
0.75
0.775
0.8
0.825
0.85
0.875
0.9
0.925
0.95
0.975
0.025
0.05
0.075
0.1
0.125
0.15
0.175
0.2
0.225
0.25
0.275
0.3
0.325
0.35
0.375
0.4
0.425
0.45
0.475
0.5
0.525
0.55
0.575
0.6
0.625
0.65
0.675
0.7
0.725
0.75
0.775
0.8
0.825
0.85
0.875
0.9
0.925
0.95
0.975
0.025
0.05
0.075
0.1
0.125
0.15
0.175
0.2
0.225
0.25
0.275
0.3
0.325
0.35
0.375
0.4
0.425
0.45
0.475
0.5
0.525
0.55
0.575
0.6
0.625
0.65
0.675
0.7
0.725
0.75
0.775
0.8
0.825
0.85
0.875
0.9
0.925
0.95
0.975
0.025
0.05
0.075
0.1
0.125
0.15
0.175
0.2
0.225
0.25
0.275
0.3
0.325
0.35
0.375
0.4
0.425
0.45
0.475
0.5
0.525
0.55
0.575
0.6
0.625
0.65
0.675
0.7
0.725
0.75
0.775
0.8
0.825
0.85
0.875
0.9
0.925
0.95
0.975
0.025
0.05
0.075
0.1
0.125
0.15
0.175
0.2
0.225
0.25
0.275
0.3
0.325
0.35
0.375
0.4
0.425
0.45
0.475
0.5
0.525
0.55
0.575
0.6
0.625
0.65
0.675
0.7
0.725
0.75
0.775
0.8
0.825
0.85
0.875
0.9
0.925
0.95
0.975
0.025
0.05
0.075
0.1
0.125
0.15
0.175
0.2
0.225
0.25
0.275
0.3
0.325
0.35
0.375
0.4
0.425
0.45
0.475
0.5
0.525
0.55
0.575
0.6
0.625
0.65
0.675
0.7
0.725
0.75
0.775
0.8
0.825
0.85
0.875
0.9
0.925
0.95
0.975
0.025
0.05
0.075
0.1
0.125
0.15
0.175
0.2
0.225
0.25
0.275
0.3
0.325
0.35
0.375
0.4
0.425
0.45
0.475
0.5
0.525
0.55
0.575
0.6
0.625
0.65
0.675
0.7
0.725
0.75
0.775
0.8
0.825
0.85
0.875
0.9
0.925
0.95
0.975
0.025
0.05
0.075
0.1
0.125
0.15
0.175
0.2
0.225
0.25
0.275
0.3
0.325
0.35
0.375
0.4
0.425
0.45
0.475
0.5
0.525
0.55
0.575
0.6
0.625
0.65
0.675
0.7
0.725
0.75
0.775
0.8
0.825
0.85
0.875
0.9
0.925
0.95
0.975
0.025
0.05
0.075
0.1
0.125
0.15
0.175
0.2
0.225
0.25
0.275
0.3
0.325
0.35
0.375
0.4
0.425
0.45
0.475
0.5
0.525
0.55
0.575
0.6
0.625
0.65
0.675
0.7
0.725
0.75
0.775
0.8
0.825
0.85
0.875
0.9
0.925
0.95
0.975
0.025
0.05
0.075
0.1
0.125
0.15
0.175
0.2
0.225
0.25
0.275
0.3
0.325
0.35
0.375
0.4
0.425
0.45
0.475
0.5
0.525
0.55
0.575
0.6
0.625
0.65
0.675
0.7
0.725
0.75
0.775
0.8
0.825
0.85
0.875
0.9
0.925
0.95
0.975
0.025
0.05
0.075
0.1
0.125
0.15
0.175
0.2
0.225
0.25
0.275
0.3
0.325
0.35
0.375
0.4
0.425
0.45
0.475
0.5
0.525
0.55
0.575
0.6
0.625
0.65
0.675
0.7
0.725
0.75
0.775
0.8
0.825
0.85
0.875
0.9
0.925
0.95
0.975
0.025
0.05
0.075
0.1
0.125
0.15
0.175
0.2
0.225
0.25
0.275
0.3
0.325
0.35
0.375
0.4
0.425
0.45
0.475
0.5
0.525
0.55
0.575
0.6
0.625
0.65
0.675
0.7
0.725
0.75
0.775
0.8
0.825
0.85
0.875
0.9
0.925
0.95
0.975
0.025
0.05
0.075
0.1
0.125
0.15
0.175
0.2
0.225
0.25
0.275
0.3
0.325
0.35
0.375
0.4
0.425
0.45
0.475
0.5
0.525
0.55
0.575
0.6
0.625
0.65
0.675
0.7
0.725
0.75
0.775
0.8
0.825
0.85
0.875
0.9
0.925
0.95
0.975
0.025
0.05
0.075
0.1
0.125
0.15
0.175
0.2
0.225
0.25
0.275
0.3
0.325
0.35
0.375
0.4
0.425
0.45
0.475
0.5
0.525
0.55
0.575
0.6
0.625
0.65
0.675
0.7
0.725
0.75
0.775
0.8
0.825
0.85
0.875
0.9
0.925
0.95
0.975

0.000171095
0.000514389
0.000861004
0.00121319
0.00157323
0.0019435
0.00232646
0.00272467
0.00314087
0.00357796
0.00403904
0.0045275
0.00504703
0.00560169
0.00619601
0.00683508
0.00752463
0.00827127
0.0090826
0.00996754
0.0109366
0.0120025
0.0131804
0.0144893
0.0159526
0.0176004
0.0194712
0.021616
0.0241037
0.0270295
0.0305293
0.0348043
0.0401658
0.0471239
0.0565797
0.070297
0.092236
0.13295
0.226248
0.499829
0.000512182
0.00153985
0.00257745
0.0036317
0.00470947
0.00581782
0.00696412
0.00815605
0.00940174
0.0107099
0.0120897
0.0135514
0.0151059
0.0167654
0.0185433
0.0204547
0.0225168
0.0247491
0.0271742
0.0298185
0.0327131
0.0358953
0.0394103
0.0433134
0.0476735
0.0525781
0.0581395
0.0645052
0.071873
0.0805145
0.0908128
0.103327
0.118901
0.138874
0.165478
0.202669
0.257933
0.346266
0.49846
0.772726
0.000849967
0.00255537
0.00427724
0.0060267
0.00781512
0.00965422
0.0115561
0.0135337
0.0156002
0.0177701
0.0200586
0.0224826
0.0250599
0.0278107
0.0307571
0.0339238
0.0373388
0.0410342
0.0450466
0.0494191
0.054202
0.0594555
0.0652521
0.0716803
0.07885
0.086899
0.0960034
0.106392
0.118369
0.132343
0.148881
0.168788
0.193238
0.223993
0.263788
0.316969
0.39056
0.495722
0.6486
0.865339
0.00118228
0.00355444
0.00594945
0.00838275
0.0108701
0.0134278
0.0160726
0.0188223
0.0216953
0.0247116
0.0278922
0.0312602
0.0348405
0.0386605
0.0427505
0.0471445
0.0518805
0.0570021
0.0625591
0.0686092
0.0752203
0.0824726
0.0904622
0.099306
0.109147
0.120164
0.132583
0.146692
0.162867
0.181606
0.20358
0.229707
0.261268
0.300074
0.348711
0.41086
0.491616
0.597462
0.73488
0.905368
0.001507
0.00453066
0.00758336
0.0106847
0.0138548
0.0171142
0.0204843
0.0239875
0.0276472
0.0314887
0.0355385
0.0398256
0.0443814
0.0492403
0.0544401
0.0600231
0.0660368
0.0725347
0.0795784
0.0872385
0.0955975
0.104752
0.114818
0.125934
0.138268
0.152028
0.167472
0.184925
0.204801
0.227636
0.254126
0.285193
0.322053
0.366323
0.420121
0.486144
0.567583
0.66763
0.78809
0.926622
0.00182207
0.00547785
0.00916862
0.012918
0.0167502
0.0206899
0.0247629
0.028996
0.0334175
0.0380574
0.0429475
0.0481224
0.0536193
0.0594791
0.0657464
0.0724711
0.0797087
0.0875217
0.0959813
0.105169
0.115179
0.126121
0.138125
0.151344
0.165964
0.182209
0.200353
0.220735
0.243777
0.270009
0.300097
0.334884
0.375429
0.423044
0.479308
0.54601
0.624941
0.717387
0.823225
0.939654
0.00212551
0.00639005
0.0106952
0.0150686
0.019538
0.0241324
0.0288815
0.0338163
0.0389695
0.0443758
0.0500718
0.0560971
0.0624945
0.0693103
0.0765955
0.0844063
0.0928052
0.101862
0.111656
0.122277
0.133828
0.146428
0.160215
0.175353
0.192035
0.21049
0.230995
0.253884
0.279563
0.308525
0.341369
0.378819
0.421735
0.471115
0.528055
0.59365
0.668782
0.753753
0.84777
0.948424
0.00241543
0.00726159
0.0121538
0.017123
0.022201
0.0274202
0.0328142
0.0384181
0.0442686
0.0504044
0.0568668
0.0636999
0.0709512
0.0786721
0.086919
0.0957534
0.105244
0.115466
0.126504
0.138455
0.151428
0.165547
0.180955
0.197819
0.216332
0.236721
0.259253
0.284244
0.312067
0.343159
0.378035
0.417286
0.461578
0.511627
0.568148
0.631753
0.702783
0.781072
0.86568
0.954693
0.00269006
0.00808713
0.0135352
0.0190687
0.0247227
0.0305332
0.0365372
0.0427734
0.0492824
0.0561065
0.0632912
0.0708845
0.0789382
0.0875081
0.0966549
0.106445
0.11695
0.128252
0.14044
0.153612
0.167883
0.183377
0.20024
0.218636
0.238753
0.260809
0.285053
0.311773
0.3413
0.37401
0.410326
0.450713
0.495663
0.545667
0.601158
0.662431
0.729524
0.802073
0.879183
0.959364
0.00294773
0.00886168
0.0148313
0.020894
0.027088
0.0334526
0.040028
0.0468561
0.0539809
0.0614482
0.0693069
0.0776088
0.0864091
0.0957673
0.105748
0.11642
0.127861
0.140154
0.15339
0.167672
0.183113
0.199839
0.217992
0.237731
0.259236
0.282708
0.308376
0.336496
0.367351
0.401255
0.438546
0.479576
0.524694
0.574219
0.628385
0.687291
0.750809
0.818514
0.889613
0.962944
0.0031869
0.0095806
0.0160342
0.0225879
0.0292829
0.0361612
0.043266
0.0506422
0.0583368
0.0663986
0.0748796
0.0838346
0.093322
0.103404
0.114149
0.125628
0.13792
0.151111
0.165295
0.180573
0.197057
0.214873
0.234157
0.25506
0.27775
0.302412
0.329249
0.358482
0.390353
0.425113
0.463026
0.50435
0.549321
0.598128
0.650874
0.707536
0.767908
0.831561
0.897813
0.965744
0.00340617
0.0102397
0.0171369
0.0241406
0.0312945
0.0386432
0.0462326
0.0541102
0.0623254
0.07093
0.0799784
0.0895281
0.09964
0.110379
0.121815
0.134022
0.14708
0.161077
0.176105
0.192266
0.209671
0.22844
0.248703
0.270603
0.294294
0.319941
0.347724
0.377833
0.410464
0.445819
0.484096
0.525477
0.570112
0.618097
0.669449
0.724071
0.781726
0.842008
0.904333
0.967962
0.00360428
0.0108351
0.018133
0.0255432
0.0331114
0.0408846
0.048911
0.0572405
0.0659246
0.0750176
0.0845759
0.0946594
0.105331
0.116658
0.12871
0.141565
0.155303
0.170011
0.185782
0.202716
0.220921
0.240512
0.261613
0.284355
0.30888
0.335335
0.363875
0.39466
0.427851
0.463604
0.502063
0.54335
0.587552
0.634699
0.684752
0.737575
0.792919
0.85041
0.909551
0.969732
0.00378008
0.0113635
0.019017
0.0267876
0.0347233
0.0428729
0.0512865
0.0600161
0.0691152
0.0786398
0.0886484
0.0992026
0.110367
0.12221
0.134803
0.148225
0.162555
0.177882
0.194296
0.211896
0.230786
0.251075
0.272881
0.296326
0.321536
0.348643
0.37778
0.409082
0.442676
0.478682
0.517201
0.55831
0.602046
0.648397
0.697286
0.748556
0.801963
0.857164
0.913729
0.971146
0.0039326
0.0118219
0.0197838
0.0278671
0.0361213
0.0445971
0.0533462
0.0624221
0.0718802
0.081778
0.0921755
0.103136
0.114724
0.127011
0.140069
0.153976
0.168812
0.184665
0.201624
0.219785
0.23925
0.260122
0.282511
0.30653
0.332295
0.35992
0.389522
0.421211
0.455089
0.491246
0.52975
0.570641
0.613925
0.659557
0.707438
0.757402
0.809211
0.862555
0.917054
0.97227
0.00406098
0.0122078
0.0204293
0.0287756
0.0372979
0.046048
0.0550791
0.0644461
0.0742056
0.0844165
0.09514
0.10644
0.118384
0.131041
0.144486
0.158797
0.174053
0.190341
0.20775
0.226372
0.246307
0.267652
0.290511
0.31499
0.341192
0.369221
0.399177
0.431151
0.465225
0.501464
0.539911
0.580581
0.623455
0.668468
0.715507
0.764402
0.814926
0.866792
0.919661
0.97315
0.00416453
0.012519
0.0209498
0.0295083
0.0382466
0.0472178
0.0564761
0.0660775
0.0760797
0.0865425
0.097528
0.109101
0.12133
0.134284
0.148039
0.162671
0.178262
0.194896
0.212661
0.231648
0.251952
0.273668
0.296893
0.321726
0.348263
0.376596
0.406813
0.438991
0.473195
0.509473
0.547848
0.588319
0.630846
0.675353
0.721719
0.769774
0.819298
0.870026
0.921648
0.973821
0.00424268
0.0127539
0.0213427
0.0300613
0.0389626
0.0481005
0.0575302
0.0673083
0.0774932
0.0881457
0.0993285
0.111107
0.123549
0.136727
0.150714
0.165587
0.181428
0.198321
0.216351
0.235608
0.256185
0.278173
0.301667
0.326758
0.353537
0.382087
0.412488
0.444805
0.479093
0.515384
0.553692
0.593999
0.636257
0.68038
0.726242
0.773675
0.822467
0.872366
0.923084
0.974305
0.00429502
0.0129112
0.0216057
0.0304315
0.039442
0.0486915
0.0582358
0.0681321
0.0784394
0.0892187
0.100533
0.112449
0.125034
0.13836
0.152502
0.167536
0.183543
0.200607
0.218813
0.23825
0.259006
0.281174
0.304844
0.330103
0.357038
0.385729
0.416246
0.44865
0.482986
0.51928
0.557535
0.597728
0.639802
0.683668
0.729195
0.776218
0.82453
0.873887
0.924016
0.974619
0.00432125
0.01299
0.0217376
0.0306171
0.0396823
0.0489878
0.0585896
0.0685451
0.0789136
0.0897564
0.101137
0.113121
0.125778
0.139179
0.153397
0.168512
0.184602
0.201751
0.220045
0.23957
0.260417
0.282674
0.30643
0.331773
0.358785
0.387544
0.418118
0.450563
0.484921
0.521214
0.559442
0.599575
0.641557
0.685293
0.730654
0.777473
0.825546
0.874636
0.924475
0.974774
0.00432126
0.01299
0.0217376
0.0306171
0.0396823
0.0489878
0.0585896
0.0685451
0.0789136
0.0897564
0.101137
0.113121
0.125778
0.139179
0.153397
0.168512
0.184602
0.201751
0.220045
0.23957
0.260417
0.282674
0.30643
0.331773
0.358785
0.387544
0.418118
0.450563
0.484921
0.521214
0.559442
0.599575
0.641557
0.685293
0.730654
0.777473
0.825546
0.874636
0.924475
0.974774
0.00429502
0.0129112
0.0216058
0.0304315
0.039442
0.0486915
0.0582359
0.0681322
0.0784394
0.0892187
0.100533
0.112449
0.125034
0.13836
0.152502
0.167536
0.183543
0.200607
0.218813
0.23825
0.259006
0.281174
0.304844
0.330103
0.357038
0.385729
0.416246
0.44865
0.482986
0.51928
0.557535
0.597728
0.639802
0.683668
0.729195
0.776218
0.82453
0.873887
0.924016
0.974619
0.00424269
0.0127539
0.0213427
0.0300613
0.0389626
0.0481006
0.0575302
0.0673083
0.0774933
0.0881458
0.0993285
0.111107
0.123549
0.136727
0.150714
0.165587
0.181428
0.198321
0.216351
0.235609
0.256185
0.278174
0.301667
0.326758
0.353537
0.382087
0.412488
0.444806
0.479093
0.515384
0.553692
0.593999
0.636257
0.68038
0.726242
0.773675
0.822467
0.872366
0.923084
0.974305
0.00416454
0.012519
0.0209498
0.0295084
0.0382467
0.0472179
0.0564762
0.0660776
0.0760798
0.0865426
0.0975281
0.109101
0.12133
0.134284
0.148039
0.162671
0.178262
0.194896
0.212661
0.231649
0.251952
0.273668
0.296893
0.321726
0.348263
0.376596
0.406813
0.438991
0.473196
0.509473
0.547849
0.588319
0.630846
0.675353
0.721719
0.769774
0.819298
0.870026
0.921648
0.973821
0.00406099
0.0122078
0.0204293
0.0287757
0.0372979
0.046048
0.0550792
0.0644462
0.0742057
0.0844166
0.0951402
0.10644
0.118384
0.131042
0.144487
0.158797
0.174053
0.190341
0.20775
0.226373
0.246307
0.267652
0.290512
0.31499
0.341192
0.369221
0.399177
0.431151
0.465225
0.501464
0.539911
0.580582
0.623455
0.668468
0.715507
0.764402
0.814926
0.866792
0.919661
0.97315
0.00393261
0.011822
0.0197839
0.0278672
0.0361214
0.0445972
0.0533463
0.0624222
0.0718803
0.0817781
0.0921757
0.103136
0.114725
0.127011
0.140069
0.153976
0.168812
0.184665
0.201624
0.219786
0.23925
0.260122
0.282511
0.306531
0.332295
0.35992
0.389522
0.421211
0.45509
0.491246
0.52975
0.570641
0.613925
0.659557
0.707438
0.757402
0.809212
0.862555
0.917054
0.97227
0.00378009
0.0113636
0.0190171
0.0267877
0.0347234
0.042873
0.0512866
0.0600162
0.0691153
0.0786399
0.0886486
0.0992027
0.110367
0.12221
0.134804
0.148225
0.162556
0.177882
0.194296
0.211896
0.230786
0.251076
0.272882
0.296326
0.321536
0.348643
0.37778
0.409082
0.442676
0.478682
0.517201
0.55831
0.602046
0.648397
0.697286
0.748556
0.801963
0.857164
0.913729
0.971146
0.00360429
0.0108352
0.0181331
0.0255432
0.0331115
0.0408847
0.0489112
0.0572406
0.0659248
0.0750177
0.0845761
0.0946596
0.105331
0.116658
0.12871
0.141565
0.155303
0.170011
0.185782
0.202717
0.220922
0.240513
0.261613
0.284356
0.30888
0.335335
0.363875
0.39466
0.427851
0.463604
0.502063
0.54335
0.587552
0.6347
0.684752
0.737575
0.792919
0.85041
0.909551
0.969732
0.00340618
0.0102397
0.0171369
0.0241407
0.0312946
0.0386433
0.0462327
0.0541103
0.0623255
0.0709302
0.0799786
0.0895283
0.0996403
0.110379
0.121815
0.134022
0.147081
0.161077
0.176105
0.192266
0.209672
0.22844
0.248704
0.270603
0.294294
0.319941
0.347725
0.377833
0.410464
0.445819
0.484096
0.525477
0.570112
0.618097
0.669449
0.724072
0.781727
0.842008
0.904333
0.967962
0.00318691
0.00958064
0.0160342
0.022588
0.029283
0.0361613
0.0432661
0.0506424
0.0583369
0.0663988
0.0748798
0.0838348
0.0933222
0.103405
0.114149
0.125628
0.13792
0.151112
0.165295
0.180573
0.197058
0.214874
0.234157
0.255061
0.277751
0.302412
0.329249
0.358483
0.390353
0.425113
0.463026
0.50435
0.549321
0.598128
0.650875
0.707536
0.767908
0.831561
0.897813
0.965744
0.00294774
0.00886171
0.0148313
0.0208941
0.0270881
0.0334527
0.0400281
0.0468563
0.053981
0.0614484
0.0693072
0.077609
0.0864093
0.0957676
0.105748
0.116421
0.127861
0.140154
0.15339
0.167672
0.183113
0.199839
0.217992
0.237731
0.259236
0.282708
0.308377
0.336496
0.367351
0.401255
0.438546
0.479576
0.524695
0.574219
0.628385
0.687291
0.750809
0.818514
0.889614
0.962944
0.00269007
0.00808717
0.0135353
0.0190688
0.0247228
0.0305333
0.0365373
0.0427736
0.0492825
0.0561067
0.0632914
0.0708847
0.0789384
0.0875084
0.0966552
0.106445
0.116951
0.128253
0.14044
0.153613
0.167883
0.183377
0.20024
0.218636
0.238753
0.260809
0.285053
0.311774
0.3413
0.37401
0.410326
0.450713
0.495663
0.545667
0.601158
0.662432
0.729524
0.802073
0.879183
0.959364
0.00241544
0.00726163
0.0121538
0.0171231
0.0222011
0.0274203
0.0328144
0.0384183
0.0442688
0.0504046
0.056867
0.0637001
0.0709514
0.0786724
0.0869192
0.0957537
0.105244
0.115466
0.126505
0.138456
0.151429
0.165547
0.180956
0.197819
0.216332
0.236721
0.259254
0.284245
0.312067
0.343159
0.378035
0.417286
0.461578
0.511627
0.568148
0.631753
0.702783
0.781072
0.86568
0.954693
0.00212552
0.00639008
0.0106953
0.0150687
0.0195381
0.0241325
0.0288816
0.0338164
0.0389697
0.044376
0.050072
0.0560973
0.0624947
0.0693105
0.0765957
0.0844065
0.0928054
0.101862
0.111656
0.122277
0.133828
0.146428
0.160215
0.175353
0.192035
0.21049
0.230995
0.253885
0.279563
0.308525
0.341369
0.378819
0.421735
0.471115