variables = "x", "y",  "v0", "v1", "v2",
ZONE N = 4456 E = 8592 ZONETYPE =fetriangle
DATAPACKING=BLOCK
VARLOCATION=([1-2]=NODAL,[3-5]=CELLCENTERED)

-2
2
2
-2
0.8
0
-0.8
0
-1.9
-1.8
-1.7
-1.6
-1.5
-1.4
-1.3
-1.2
-1.1
-1
-0.9
-0.8
-0.7
-0.6
-0.5
-0.4
-0.3
-0.2
-0.1
-5.50049e-012
0.1
0.2
0.3
0.4
0.5
0.6
0.7
0.8
0.9
1
1.1
1.2
1.3
1.4
1.5
1.6
1.7
1.8
1.9
2
2
2
2
2
2
2
2
2
2
2
2
2
2
2
2
2
2
2
2
2
2
2
2
2
2
2
2
2
2
2
2
2
2
2
2
2
2
2
1.9
1.8
1.7
1.6
1.5
1.4
1.3
1.2
1.1
1
0.9
0.8
0.7
0.6
0.5
0.4
0.3
0.2
0.1
5.50049e-012
-0.1
-0.2
-0.3
-0.4
-0.5
-0.6
-0.7
-0.8
-0.9
-1
-1.1
-1.2
-1.3
-1.4
-1.5
-1.6
-1.7
-1.8
-1.9
-2
-2
-2
-2
-2
-2
-2
-2
-2
-2
-2
-2
-2
-2
-2
-2
-2
-2
-2
-2
-2
-2
-2
-2
-2
-2
-2
-2
-2
-2
-2
-2
-2
-2
-2
-2
-2
-2
-2
0.799383
0.797534
0.794455
0.790151
0.784628
0.777896
0.769964
0.760845
0.750553
0.739104
0.726515
0.712805
0.697997
0.682112
0.665176
0.647214
0.628254
0.608325
0.587458
0.565685
0.543041
0.519558
0.495275
0.470228
0.444456
0.417999
0.390897
0.363192
0.334928
0.306147
0.276894
0.247214
0.217152
0.186756
0.156072
0.125148
0.0940299
0.0627673
0.0314079
-0.0314079
-0.0627673
-0.0940299
-0.125148
-0.156072
-0.186756
-0.217152
-0.247214
-0.276894
-0.306147
-0.334928
-0.363192
-0.390897
-0.417999
-0.444456
-0.470228
-0.495275
-0.519558
-0.543041
-0.565685
-0.587458
-0.608325
-0.628254
-0.647214
-0.665176
-0.682112
-0.697997
-0.712805
-0.726515
-0.739104
-0.750553
-0.760845
-0.769964
-0.777896
-0.784628
-0.790151
-0.794455
-0.797534
-0.799383
-0.799383
-0.797534
-0.794455
-0.790151
-0.784628
-0.777896
-0.769964
-0.760845
-0.750553
-0.739104
-0.726515
-0.712805
-0.697997
-0.682112
-0.665176
-0.647214
-0.628254
-0.608325
-0.587458
-0.565685
-0.543041
-0.519558
-0.495275
-0.470228
-0.444456
-0.417999
-0.390897
-0.363192
-0.334928
-0.306147
-0.276894
-0.247214
-0.217152
-0.186756
-0.156072
-0.125148
-0.0940299
-0.0627673
-0.0314079
0.0314079
0.0627673
0.0940299
0.125148
0.156072
0.186756
0.217152
0.247214
0.276894
0.306147
0.334928
0.363192
0.390897
0.417999
0.444456
0.470228
0.495275
0.519558
0.543041
0.565685
0.587458
0.608325
0.628254
0.647214
0.665176
0.682112
0.697997
0.712805
0.726515
0.739104
0.750553
0.760845
0.769964
0.777896
0.784628
0.790151
0.794455
0.797534
0.799383
-1.12779
1.17297
-1.17297
1.12779
-0.520103
1.32885
0.520103
-1.32885
1.30657
-0.566526
-1.30657
0.566526
1.34738
-0.0191268
-1.34738
0.0191268
0.945432
-0.772333
-0.945432
0.772333
0.644921
-0.928772
-0.644921
0.928772
0.35831
-1.04221
-0.35831
1.04221
1.10821
-0.289182
-1.10821
0.289182
-0.0210131
1.07005
-1.07005
0.0210131
0.938653
-0.498772
-0.938653
0.498772
1.54062
-0.9748
0.9748
-1.54062
1.5214
-1.44973
1.44973
-1.5214
0.733061
-0.705795
-0.733061
0.705795
0.90345
-1.55694
-0.90345
1.55694
0.176923
-0.976876
-0.176923
0.976876
-0.811203
1.20124
-1.20124
0.811203
0.319129
-1.60785
-0.319129
1.60785
0.469317
-0.870016
-0.469317
0.870016
-0.880303
1.23232
-1.23232
0.880303
-1.60942
0.261502
-0.261502
1.60942
-0.320637
0.929058
-0.929058
0.320637
0.193236
1.23764
-1.23764
-0.193236
0.573016
-0.760967
-0.573016
0.760967
-0.941176
0.167261
0.941176
-0.167261
0.784857
-0.551863
-0.784857
0.551863
1.64428
-0.645958
-1.64428
0.645958
-0.593176
1.65441
-1.65441
0.593176
0.309571
-0.898741
-0.309571
0.898741
-0.865063
0.98339
0.865063
-0.98339
-1.20141
1.48314
-1.48314
1.20141
1.10583
-0.638485
-1.10583
0.638485
-0.563344
1.11591
0.563344
-1.11591
-1.36178
0.323161
1.36178
-0.323161
-0.0399417
-1.62629
1.62629
0.0399417
0.0154015
0.932364
-0.932364
-0.0154015
0.83197
-0.403534
-0.83197
0.403534
-1.20179
-1.21396
1.39978
1.68457
-1.39978
-1.68457
1.20179
1.21396
-1.11215
0.463869
-0.463869
1.11215
-1.38639
1.70847
1.38639
-1.70847
-1.67603
1.69767
1.67603
-1.69767
1.051
-0.930951
-1.051
0.930951
-0.138491
1.20586
-1.20586
0.138491
0.681124
-0.603863
-0.681124
0.603863
0.737808
-1.41114
-0.737808
1.41114
-0.325739
-1.40525
1.40525
0.325739
1.43191
-0.761836
-1.43191
0.761836
-0.985174
1.3455
-1.3455
0.985174
-0.363625
1.22124
-1.22124
0.363625
-1.1091
1.72974
1.1091
-1.72974
-0.782229
0.852304
0.782229
-0.852304
-0.639995
0.894704
-0.894704
0.639995
0.19798
-0.88197
-0.19798
0.88197
-1.49085
0.480139
-0.480139
1.49085
0.451464
-0.77173
-0.451464
0.77173
0.110449
1.1153
-1.1153
-0.110449
0.860993
-1.75507
1.75507
-0.860993
-0.713297
1.07467
0.713297
-1.07467
0.597315
-0.662622
-0.597315
0.662622
-1.47241
0.159929
-0.159929
1.47241
0.352686
-0.822491
-0.352686
0.822491
-0.488596
1.00624
0.488596
-1.00624
-0.257624
0.854253
-0.854253
0.257624
-0.0901094
-0.890714
0.0901094
0.890714
-1.46245
0.13227
-0.13227
1.46245
-0.152547
1.08205
-1.08205
0.152547
0.248088
1.08144
-1.08144
-0.248088
0.789131
-1.76936
1.76936
-0.789131
-0.958603
1.12739
-1.12739
0.958603
1.75359
-1.44461
1.44461
-1.75359
0.48699
-1.75704
-0.48699
1.75704
0.0954363
0.884843
-0.884843
-0.0954363
1.07546
-0.790535
-1.07546
0.790535
-1.06114
1.27847
-1.27847
1.06114
0.0114209
1.2088
-1.2088
-0.0114209
-0.659201
1.24552
0.659201
-1.24552
-0.473831
1.50739
-1.50739
0.473831
-0.685961
0.798903
0.685961
-0.798903
1.24684
-0.719987
-1.24684
0.719987
-1.77896
0.40247
1.77896
-0.40247
-1.76152
0.187192
1.76152
-0.187192
-1.75625
-0.126584
0.126584
1.75625
-1.23378
0.374258
-0.374258
1.23378
0.743876
-0.476186
-0.743876
0.476186
-1.01052
0.409409
1.01052
-0.409409
1.0067
-0.250245
-1.0067
0.250245
-0.401457
0.964554
0.401457
-0.964554
-0.0767643
0.989317
-0.989317
0.0767643
-1.24922
1.30232
-1.30232
1.24922
-0.994816
0.27564
-0.27564
0.994816
0.562909
-0.869717
-0.562909
0.869717
0.836546
-0.725868
-0.836546
0.725868
0.257612
-0.839362
-0.257612
0.839362
-1.01501
-0.0800161
0.0800161
1.01501
0.497591
-0.714058
-0.497591
0.714058
1.00186
-0.597741
-1.00186
0.597741
-0.820767
0.32536
0.820767
-0.32536
-0.186562
0.848301
-0.848301
0.186562
-0.867899
0.0151268
0.867899
-0.0151268
1.05332
-1.80461
1.80461
-1.05332
-0.803359
0.641903
0.803359
-0.641903
0.941022
-1.38349
1.38349
-0.941022
0.693637
-0.531596
-0.693637
0.531596
-1.3332
0.193412
-0.193412
1.3332
1.14296
-0.438916
0.438916
-1.14296
-0.741977
1.58016
-1.58016
0.741977
-0.754302
0.962949
0.754302
-0.962949
0.854049
-0.489741
-0.854049
0.489741
-0.891267
0.874735
0.891267
-0.874735
1.22165
-0.255711
-1.22165
0.255711
0.650314
-1.82143
1.82143
-0.650314
1.59026
-0.810803
0.810803
-1.59026
-1.30179
-0.0879809
0.0879809
1.30179
-0.911953
0.412652
-0.412652
0.911953
-0.587857
1.0189
0.587857
-1.0189
-0.408332
0.763935
-0.763935
0.408332
0.63994
-0.734623
-0.63994
0.734623
-1.15194
1.04148
-1.04148
1.15194
-0.618443
1.44137
-1.44137
0.618443
1.18849
-0.555579
-1.18849
0.555579
-1.04688
1.49358
1.04688
-1.49358
1.52945
-1.36359
1.36359
-1.52945
-1.32025
0.447359
-0.447359
1.32025
1.02185
-0.700808
-1.02185
0.700808
-0.0114965
-1.49066
1.49066
0.0114965
-1.54046
1.82288
1.54046
-1.82288
-0.846548
1.334
-1.334
0.846548
1.54936
-1.13553
1.13553
-1.54936
0.642454
-1.84295
1.84295
-0.642454
-0.592766
1.44357
-1.44357
0.592766
1.35696
0.208544
-1.35696
-0.208544
1.53573
-1.28775
1.28775
-1.53573
-1.83013
0.938238
-0.938238
1.83013
-1.35833
1.39503
-1.39503
1.35833
1.6215
-1.53504
1.53504
-1.6215
-1.25579
1.82462
1.25579
-1.82462
0.617068
-0.598289
-0.617068
0.598289
-1.08607
0.818823
-0.818823
1.08607
-1.583
0.116644
-0.116644
1.583
-0.509514
1.21918
0.509514
-1.21918
-0.337017
1.13144
0.337017
-1.13144
-0.241951
0.929286
-0.929286
0.241951
1.8297
-1.82999
-1.8297
1.82999
-1.24406
1.6342
-1.6342
1.24406
-0.17377
-1.60567
1.60567
0.17377
-1.11549
1.30508
-1.30508
1.11549
-0.0413978
-1.79004
1.79004
0.0413978
0.524512
-0.80379
-0.524512
0.80379
1.8361
-1.60257
1.60257
-1.8361
0.973431
-1.01178
-0.973431
1.01178
-1.03362
0.509004
-0.509004
1.03362
0.864067
-0.555195
-0.864067
0.555195
0.39822
-1.63567
-0.39822
1.63567
0.451076
-1.62281
-0.451076
1.62281
-1.23852
0.925209
-0.925209
1.23852
-0.860146
0.0440776
-0.0440776
0.860146
1.28691
-1.84544
1.84544
-1.28691
-0.52243
0.930311
0.52243
-0.930311
-0.929434
0.248643
-0.248643
0.929434
0.392124
-0.768077
-0.392124
0.768077
0.404042
-1.32207
1.32207
-0.404042
-1.05714
1.41771
-1.41771
1.05714
0.355447
-1.47077
-0.355447
1.47077
-0.387002
0.882782
0.387002
-0.882782
-1.13559
0.0887241
-0.0887241
1.13559
0.147055
-0.846345
-0.147055
0.846345
-1.08842
0.371566
-0.371566
1.08842
-1.00551
0.328346
-0.328346
1.00551
1.28603
0.282605
-0.282605
-1.28603
0.989637
-0.854455
-0.989637
0.854455
-1.84647
0.334557
1.84647
-0.334557
-0.771261
0.770983
0.771261
-0.770983
-0.297826
0.804232
0.297826
-0.804232
0.529655
-0.67012
-0.529655
0.67012
-1.85668
-0.261675
1.85668
0.261675
-0.207508
1.14577
-1.14577
0.207508
1.66506
-1.05552
1.05552
-1.66506
-1.25044
1.1808
-1.1808
1.25044
0.103791
1.20534
-1.20534
-0.103791
0.801506
-0.45633
-0.801506
0.45633
-0.843947
0.131635
-0.131635
0.843947
-0.806157
1.33165
-1.33165
0.806157
1.33708
-0.674744
-1.33708
0.674744
0.748346
-0.603404
-0.748346
0.603404
-0.652975
0.655831
0.652975
-0.655831
-0.421357
0.819093
0.421357
-0.819093
-1.68289
0.973409
-0.973409
1.68289
-0.872569
0.354251
-0.354251
0.872569
-0.652378
1.14677
0.652378
-1.14677
-0.958209
-0.109636
0.109636
0.958209
-0.712177
0.88822
0.712177
-0.88822
1.64382
-1.52674
1.52674
-1.64382
-0.359256
-0.24298
-1.52035
-1.49115
1.52035
1.49115
0.359256
0.24298
-1.06381
0.17565
-0.17565
1.06381
0.840295
-1.45712
-0.840295
1.45712
-0.045868
0.932031
-0.932031
0.045868
-1.20374
0.463586
-0.463586
1.20374
-1.00135
0.00884169
-0.00884169
1.00135
-0.876369
1.13591
-1.13591
0.876369
1.65198
-1.37674
1.37674
-1.65198
-0.963703
0.335174
-0.335174
0.963703
0.03492
1.12892
-1.12892
-0.03492
-1.02778
1.20777
-1.20777
1.02778
0.841251
-0.805716
-0.841251
0.805716
-1.399
1.85286
1.399
-1.85286
0.801498
-0.278424
-0.801498
0.278424
-0.751798
1.29134
-1.29134
0.751798
-0.614057
0.814791
0.614057
-0.814791
-1.08181
1.05035
-1.05035
1.08181
-0.828751
0.198904
-0.198904
0.828751
-0.180332
1.0042
-1.0042
0.180332
-1.26631
0.0764408
-0.0764408
1.26631
-0.621831
1.3442
-1.3442
0.621831
1.47648
-0.869015
0.869015
-1.47648
1.14446
-0.7207
-1.14446
0.7207
0.774318
-0.360481
-0.774318
0.360481
0.644586
-0.552361
-0.644586
0.552361
0.258409
1.18014
-1.18014
-0.258409
0.428791
-0.727187
-0.428791
0.727187
-1.11894
1.60054
1.11894
-1.60054
1.10572
-0.554462
-1.10572
0.554462
0.934491
-0.574398
-0.934491
0.574398
1.68266
-1.84996
1.84996
-1.68266
-0.676997
1.00035
0.676997
-1.00035
-1.39664
0.522742
1.39664
-0.522742
1.18787
-0.643209
-1.18787
0.643209
0.69327
-0.484089
-0.69327
0.484089
0.945303
-0.696537
-0.945303
0.696537
1.05539
-0.436152
0.436152
-1.05539
-0.697466
1.52596
-1.52596
0.697466
0.338362
-0.773559
-0.338362
0.773559
-0.573617
1.54728
-1.54728
0.573617
0.058727
-1.39208
-0.058727
1.39208
-1.41232
0.112388
1.41232
-0.112388
0.916915
-1.65151
1.65151
-0.916915
-1.12458
1.86554
1.12458
-1.86554
-0.0884786
1.0572
-1.0572
0.0884786
-0.560598
0.630862
0.560598
-0.630862
-1.70314
0.762823
-0.762823
1.70314
1.87064
-0.935412
0.935412
-1.87064
-0.223916
1.07106
-1.07106
0.223916
-1.41545
0.246857
1.41545
-0.246857
-0.0811526
-0.839653
0.839653
0.0811526
-0.976594
1.21924
-1.21924
0.976594
-0.22438
0.819089
-0.819089
0.22438
-1.14257
0.183997
-0.183997
1.14257
0.148754
0.91417
-0.91417
-0.148754
1.86785
-0.780659
0.780659
-1.86785
-1.725
0.360241
1.725
-0.360241
0.715653
-0.651025
-0.715653
0.651025
-0.821146
0.919609
0.821146
-0.919609
-0.501044
1.869
0.501044
-1.869
-1.65124
0.818794
-0.818794
1.65124
-0.952512
0.931601
0.952512
-0.931601
1.41035
-0.466973
-1.41035
0.466973
1.551
-0.6274
0.6274
-1.551
-0.945548
1.44746
-1.44746
0.945548
0.687818
-1.69232
1.69232
-0.687818
-0.801899
1.18772
-1.18772
0.801899
-1.73034
0.290821
-0.290821
1.73034
-0.738273
1.1565
-1.1565
0.738273
-0.467006
0.930806
0.467006
-0.930806
-0.109783
0.943846
-0.943846
0.109783
1.872
-1.16702
1.16702
-1.872
0.901418
-1.05875
-0.901418
1.05875
-1.29414
1.40691
-1.40691
1.29414
0.0883848
0.842
-0.842
-0.0883848
-0.0988867
1.56523
-1.56523
0.0988867
0.575213
-1.88174
1.88174
-0.575213
0.572637
-0.718829
-0.572637
0.718829
-1.06078
-0.302833
0.302833
1.06078
0.32323
-0.856454
-0.32323
0.856454
-0.509292
1.07017
0.509292
-1.07017
1.19737
-0.587089
0.587089
-1.19737
1.41473
-0.407488
-1.41473
0.407488
1.88474
-0.859663
0.859663
-1.88474
-1.6871
0.570309
1.6871
-0.570309
-1.88636
0.0437322
-0.0437322
1.88636
-0.885956
1.15036
-1.15036
0.885956
0.731891
-0.436525
-0.731891
0.436525
-0.587273
0.955455
0.587273
-0.955455
0.221849
1.02091
-1.02091
-0.221849
1.01543
-0.776705
-1.01543
0.776705
-1.42119
1.12021
-1.12021
1.42119
0.251018
-1.52433
-0.251018
1.52433
0.743058
-0.528394
-0.743058
0.528394
-0.151063
0.893181
-0.893181
0.151063
-0.95986
0.364668
-0.364668
0.95986
0.516763
-1.7504
1.7504
-0.516763
-0.336249
1.16331
-1.16331
0.336249
-0.255683
1.69591
-1.69591
0.255683
-0.87397
0.440538
-0.440538
0.87397
-1.69883
-0.176097
1.69883
0.176097
-0.211623
0.898946
-0.898946
0.211623
0.104465
-1.87774
1.87774
-0.104465
-1.70707
-0.0591469
1.70707
0.0591469
0.699757
-0.761605
-0.699757
0.761605
-1.27094
0.31153
-0.31153
1.27094
-1.71404
0.098539
1.71404
-0.098539
0.524021
-0.763451
-0.524021
0.763451
0.789168
-0.701289
-0.789168
0.701289
-0.969697
0.451642
-0.451642
0.969697
-1.25558
0.454734
-0.454734
1.25558
-0.775459
1.03429
0.775459
-1.03429
0.0235273
1.07548
-1.07548
-0.0235273
1.87938
-1.49865
1.49865
-1.87938
-0.319986
0.854975
-0.854975
0.319986
-1.18409
1.10936
-1.10936
1.18409
0.260438
-0.884957
-0.260438
0.884957
0.191394
0.927136
-0.927136
-0.191394
-0.927486
-0.0776477
0.0776477
0.927486
0.656843
-1.08713
-0.656843
1.08713
-0.46714
0.822312
0.46714
-0.822312
0.644628
-0.874208
-0.644628
0.874208
-1.26196
0.190608
-0.190608
1.26196
-0.497575
1.61752
-1.61752
0.497575
-0.674455
0.854146
-0.854146
0.674455
1.27613
-0.645158
-1.27613
0.645158
-1.87433
1.71245
1.87433
-1.71245
0.362777
-0.916312
-0.362777
0.916312
-1.14573
1.33024
-1.33024
1.14573
0.784684
-0.501945
-0.784684
0.501945
-0.284903
0.968267
-0.968267
0.284903
1.00139
1.58353
-1.58353
-1.00139
1.06309
-0.860164
-1.06309
0.860164
0.250194
-1.90073
1.90073
-0.250194
-1.15047
0.411836
-0.411836
1.15047
-0.280585
0.901714
-0.901714
0.280585
1.27809
-0.508809
-1.27809
0.508809
1.11857
-0.963692
-1.11857
0.963692
0.722739
-1.88648
1.88648
-0.722739
-0.458835
0.712624
0.458835
-0.712624
-1.88915
-0.371593
0.371593
1.88915
-0.386081
1.11544
-1.11544
0.386081
-0.572333
1.29548
-1.29548
0.572333
-1.89925
1.89925
-0.182396
0.182396
0.715818
-0.583716
-0.715818
0.583716
-1.27977
-0.0170514
0.0170514
1.27977
-1.24105
1.1843
-1.1843
1.24105
0.51671
-0.861627
-0.51671
0.861627
-1.53622
0.414049
-0.414049
1.53622
-0.817436
0.591685
0.817436
-0.591685
-0.988166
-0.0350552
0.0350552
0.988166
0.736424
-0.81765
-0.736424
0.81765
-1.15684
0.0238952
-0.0238952
1.15684
-0.291089
1.05498
-1.05498
0.291089
0.838597
-0.0420945
-0.838597
0.0420945
-1.05325
0.452153
-0.452153
1.05325
-1.31394
0.940034
-0.940034
1.31394
0.406222
-1.01338
1.01338
-0.406222
-0.641831
0.961073
-0.961073
0.641831
0.963594
-1.74723
1.74723
-0.963594
-1.01895
-0.135198
0.135198
1.01895
-1.31216
1.72856
-1.72856
1.31216
0.012465
0.841812
-0.841812
-0.012465
-1.27666
1.33999
-1.33999
1.27666
-0.134401
1.01383
-1.01383
0.134401
0.0614579
-1.53437
1.53437
-0.0614579
-0.104736
1.31317
-1.31317
0.104736
-0.89458
0.524807
0.89458
-0.524807
0.242436
-0.798751
-0.242436
0.798751
0.418681
-1.88573
-0.418681
1.88573
-0.975306
0.546356
0.975306
-0.546356
0.773766
-0.300085
-0.773766
0.300085
0.625843
-0.769396
-0.625843
0.769396
-0.896688
0.733046
0.896688
-0.733046
-1.455
-0.378881
0.378881
1.455
-0.153548
-1.37053
1.37053
0.153548
1.4762
-0.705824
-1.4762
0.705824
-0.210553
0.967733
-0.967733
0.210553
-1.13291
0.147998
-0.147998
1.13291
1.20126
-0.305047
0.305047
-1.20126
1.55058
-1.47085
1.47085
-1.55058
-0.0816732
1.18867
-1.18867
0.0816732
-1.49633
1.72263
1.49633
-1.72263
1.54591
0.167916
-0.167916
-1.54591
0.497974
-0.676785
-0.497974
0.676785
-0.97379
-0.220016
0.220016
0.97379
0.855045
-1.39204
1.39204
-0.855045
1.44581
-1.4196
1.4196
-1.44581
-0.61299
0.710263
0.61299
-0.710263
1.08777
-0.696345
-1.08777
0.696345
0.293108
-0.941949
-0.293108
0.941949
-0.568875
0.804535
0.568875
-0.804535
-0.894463
-0.0184792
0.0184792
0.894463
-0.623396
0.638073
0.623396
-0.638073
1.04802
-0.650132
-1.04802
0.650132
1.22001
-1.72497
-1.22001
1.72497
-1.32646
0.266658
-0.266658
1.32646
-1.11828
1.73056
-1.73056
1.11828
-1.29209
0.383022
-0.383022
1.29209
0.989608
-1.46695
1.46695
-0.989608
-0.418731
1.20706
0.418731
-1.20706
-0.159992
0.826718
-0.826718
0.159992
0.573418
-0.599864
-0.573418
0.599864
1.06103
-0.991062
-1.06103
0.991062
-1.72092
1.59189
1.72092
-1.59189
-1.74288
0.903503
-0.903503
1.74288
1.30156
0.149874
-1.30156
-0.149874
-1.21469
1.38546
-1.38546
1.21469
0.662188
-0.497731
-0.662188
0.497731
-0.498601
1.15431
0.498601
-1.15431
0.899899
-0.815158
-0.899899
0.815158
0.691751
-0.696683
-0.691751
0.696683
-1.20911
1.49746
-1.49746
1.20911
0.760163
-0.66537
-0.760163
0.66537
-0.813001
0.363975
-0.363975
0.813001
-0.527297
0.834263
-0.834263
0.527297
1.89324
-1.38342
1.38342
-1.89324
1.53917
-0.814859
-1.53917
0.814859
-1.26874
1.55034
-1.55034
1.26874
-0.921521
0.454318
-0.454318
0.921521
-0.703598
0.931282
0.703598
-0.931282
0.75674
-0.903583
-0.75674
0.903583
-1.34772
1.0148
-1.0148
1.34772
-1.21213
1.59064
-1.59064
1.21213
0.696332
-1.34104
1.34104
-0.696332
-1.2827
1.4434
-1.4434
1.2827
-0.318505
1.01116
-1.01116
0.318505
0.546673
-0.995646
-0.546673
0.995646
-0.354034
1.29039
-1.29039
0.354034
-1.28011
1.03487
-1.03487
1.28011
-1.26431
0.851412
-0.851412
1.26431
-1.73436
0.644419
1.73436
-0.644419
-0.359636
0.749372
0.359636
-0.749372
-0.831663
0.860967
0.831663
-0.860967
-0.287014
1.16076
-1.16076
0.287014
-0.600832
0.901599
0.600832
-0.901599
-0.381379
1.16596
-1.16596
0.381379
1.04973
-0.566361
-1.04973
0.566361
-1.40925
1.6135
1.40925
-1.6135
-1.42786
0.18355
-0.18355
1.42786
0.731413
-0.39323
-0.731413
0.39323
-0.726034
1.23055
0.726034
-1.23055
-0.556184
1.51345
-1.51345
0.556184
-1.06463
-0.109174
0.109174
1.06463
1.89496
-1.05218
1.05218
-1.89496
0.359287
-0.858977
-0.359287
0.858977
-0.915703
0.366148
-0.366148
0.915703
1.47978
-1.36464
1.36464
-1.47978
-0.0367562
1.42026
-1.42026
0.0367562
0.473026
-0.743877
-0.473026
0.743877
1.90744
-1.04077
1.04077
-1.90744
-1.40889
1.03851
-1.03851
1.40889
1.13523
-1.63664
1.63664
-1.13523
0.570171
-1.78663
-0.570171
1.78663
1.89503
-1.89503
1.89503
-1.89503
-1.37882
0.911728
-0.911728
1.37882
-0.0875054
-1.48493
1.48493
0.0875054
-1.78002
1.20436
-1.20436
1.78002
-1.0409
0.363827
-0.363827
1.0409
-1.59188
1.73213
1.59188
-1.73213
0.230123
-0.867246
-0.230123
0.867246
1.50892
-0.793311
-1.50892
0.793311
0.113431
0.822309
-0.822309
-0.113431
-0.974929
0.14043
-0.14043
0.974929
-0.612664
1.37543
-1.37543
0.612664
-1.11408
1.10087
-1.10087
1.11408
-0.510105
1.15011
-1.15011
0.510105
1.50508
-1.06
1.06
-1.50508
-0.873628
0.396488
-0.396488
0.873628
1.90668
-1.75837
1.75837
-1.90668
-0.280559
-1.34499
1.34499
0.280559
-0.0510502
1.02772
-1.02772
0.0510502
0.847673
-0.627244
-0.847673
0.627244
-0.447397
0.980152
0.447397
-0.980152
0.395632
-0.731701
-0.395632
0.731701
-0.536858
1.39574
0.536858
-1.39574
-1.76911
-0.220626
0.220626
1.76911
-1.14836
1.06124
-1.06124
1.14836
-1.25847
0.786843
1.25847
-0.786843
0.272121
-0.782934
-0.272121
0.782934
0.812274
-0.190112
-0.812274
0.190112
1.14467
-0.602184
-1.14467
0.602184
-1.60534
1.89328
1.60534
-1.89328
-0.884953
-0.130882
0.130882
0.884953
1.62897
-1.62048
1.62048
-1.62897
1.77819
-1.73511
-1.77819
1.73511
1.56322
-0.892181
0.892181
-1.56322
-1.48216
1.89884
1.48216
-1.89884
-1.12646
1.51917
-1.51917
1.12646
-0.873551
0.0538643
-0.0538643
0.873551
-0.557486
1.06689
0.557486
-1.06689
0.604375
-1.74633
-0.604375
1.74633
-1.23495
1.09376
-1.09376
1.23495
-0.776479
1.35257
0.776479
-1.35257
-0.764604
0.444392
0.764604
-0.444392
-0.717972
1.59967
-1.59967
0.717972
-1.05198
1.80503
-1.80503
1.05198
-0.855554
0.221279
-0.221279
0.855554
-0.894044
0.9326
0.894044
-0.9326
-0.041711
0.969375
-0.969375
0.041711
1.6141
-1.33006
1.33006
-1.6141
0.657805
-1.91491
1.91491
-0.657805
-0.186446
1.40369
-1.40369
0.186446
-0.432997
0.900297
0.432997
-0.900297
-1.20359
0.197183
-0.197183
1.20359
1.24914
-0.585329
-1.24914
0.585329
0.487511
-0.783908
-0.487511
0.783908
-0.686711
1.41903
-1.41903
0.686711
-0.443613
1.2496
-1.2496
0.443613
0.813133
-0.973118
-0.813133
0.973118
0.0493658
0.828143
-0.828143
-0.0493658
-0.836868
1.67759
0.836868
-1.67759
0.618192
-0.565277
-0.618192
0.565277
0.983601
-0.738
-0.983601
0.738
-0.657387
1.40861
-1.40861
0.657387
1.23233
0.25639
-0.25639
-1.23233
-0.924586
1.18715
-1.18715
0.924586
-1.29324
1.62945
-1.62945
1.29324
-1.3298
1.90446
1.3298
-1.90446
-0.814231
0.174382
-0.174382
0.814231
-0.751999
0.560419
0.751999
-0.560419
-1.78398
0.712699
-0.712699
1.78398
-0.734775
1.3097
-1.3097
0.734775
0.454227
-1.70982
1.70982
-0.454227
-0.990429
0.497652
0.990429
-0.497652
-1.29861
1.75132
1.29861
-1.75132
-0.00334998
1.56615
-1.56615
0.00334998
-0.763613
1.10318
0.763613
-1.10318
0.0831431
1.14791
-1.14791
-0.0831431
-0.91562
1.30727
-1.30727
0.91562
-0.55118
1.46836
-1.46836
0.55118
-1.20504
0.323852
-0.323852
1.20504
1.08808
-0.339594
-1.08808
0.339594
-1.26625
0.12974
-0.12974
1.26625
1.13157
-1.46528
1.46528
-1.13157
1.15711
0.135091
-0.135091
-1.15711
0.307344
-0.771992
-0.307344
0.771992
0.741725
-1.78686
1.78686
-0.741725
0.695746
-0.448056
-0.695746
0.448056
-0.633834
0.981594
0.633834
-0.981594
1.65153
-1.05551
1.05551
-1.65153
1.23759
-1.93217
1.93217
-1.23759
1.29325
0.228535
-0.228535
-1.29325
-0.528125
0.638719
0.528125
-0.638719
-0.497702
1.56141
-1.56141
0.497702
0.0597568
1.24228
-1.24228
-0.0597568
-0.892133
-0.0607619
0.0607619
0.892133
0.284947
-1.78104
1.78104
-0.284947
0.792346
-0.243512
-0.792346
0.243512
-1.41395
0.305554
-0.305554
1.41395
-1.59066
0.336998
1.59066
-0.336998
0.289861
-1.10505
1.10505
-0.289861
-0.109633
-0.821934
0.821934
0.109633
-0.885834
0.247025
-0.247025
0.885834
0.428715
-0.859197
-0.428715
0.859197
0.585048
-1.90826
1.90826
-0.585048
-0.690131
0.901725
-0.901725
0.690131
-0.775964
1.46877
-1.46877
0.775964
-0.797897
0.422266
0.797897
-0.422266
-1.04408
1.20995
-1.20995
1.04408
-0.866703
1.28078
-1.28078
0.866703
0.6815
-0.561987
-0.6815
0.561987
-0.93009
0.983575
0.93009
-0.983575
-1.5605
0.427468
-0.427468
1.5605
1.55791
-1.5275
1.5275
-1.55791
-0.84913
1.03616
0.84913
-1.03616
-1.02784
-0.0320423
0.0320423
1.02784
-1.19199
1.57111
-1.57111
1.19199
0.532568
-0.702452
-0.532568
0.702452
-0.721196
1.0133
0.721196
-1.0133
0.665902
-1.61203
1.61203
-0.665902
0.28929
-0.834692
-0.28929
0.834692
-0.196509
0.196509
-1.53656
1.53656
-1.21158
1.9055
1.21158
-1.9055
-1.07611
0.331389
-0.331389
1.07611
-1.20951
1.31853
-1.31853
1.20951
-0.117367
0.908279
-0.908279
0.117367
-0.947734
1.92446
0.947734
-1.92446
0.377415
-1.65462
-0.377415
1.65462
1.92012
-0.870201
0.870201
-1.92012
-0.968326
1.1908
-1.1908
0.968326
-1.08455
0.508135
-0.508135
1.08455
-0.831459
0.447526
0.831459
-0.447526
-0.364222
0.992818
-0.992818
0.364222
0.867793
-0.766106
-0.867793
0.766106
-0.390131
0.802549
0.390131
-0.802549
1.33802
-0.511878
-1.33802
0.511878
-0.971243
-0.0757337
0.0757337
0.971243
-0.257629
-1.59825
1.59825
0.257629
-0.421276
0.78664
0.421276
-0.78664
0.649529
-0.617388
-0.649529
0.617388
-1.61687
0.536365
-0.536365
1.61687
-0.0343015
-1.92376
1.92376
0.0343015
0.947808
-0.821802
-0.947808
0.821802
0.346901
-1.35198
1.35198
-0.346901
-0.901814
0.901814
1.64362
-1.64362
0.756837
-0.331602
-0.756837
0.331602
0.366416
-1.70999
1.70999
-0.366416
0.638392
-0.523493
-0.638392
0.523493
-0.802133
0.208042
-0.208042
0.802133
0.223869
-0.900246
-0.223869
0.900246
-0.765714
0.73115
0.765714
-0.73115
0.742976
-0.360369
-0.742976
0.360369
-0.922382
0.0822478
-0.0822478
0.922382
0.999712
-0.96714
-0.999712
0.96714
1.78584
-1.51791
1.51791
-1.78584
1.60367
-1.44836
1.44836
-1.60367
-0.0168669
-1.71106
1.71106
0.0168669
-0.664481
0.76437
0.664481
-0.76437
1.57076
-1.92975
1.92975
-1.57076
-1.06929
0.995125
-0.995125
1.06929
0.309127
-1.47087
-0.309127
1.47087
1.90912
-1.79967
1.79967
-1.90912
-0.49487
0.89753
0.49487
-0.89753
0.148636
0.949799
-0.949799
-0.148636
0.558519
-0.917415
-0.558519
0.917415
-1.66525
1.16862
-1.16862
1.66525
-1.62031
-0.187113
0.187113
1.62031
0.590244
-0.631257
-0.590244
0.631257
-1.14854
0.813119
-0.813119
1.14854
-1.05145
0.741743
1.05145
-0.741743
-1.09371
0.0575984
-0.0575984
1.09371
0.718572
-0.505968
-0.718572
0.505968
-0.594795
0.888303
-0.888303
0.594795
0.428299
-1.70595
1.70595
-0.428299
-0.832712
0.289035
-0.289035
0.832712
-1.45793
0.0521841
1.45793
-0.0521841
1.24566
0.141677
-0.141677
-1.24566
-0.819486
0.768906
0.819486
-0.768906
-0.109957
1.0926
-1.0926
0.109957
-0.389863
0.840848
0.389863
-0.840848
-0.825606
0.0139424
-0.0139424
0.825606
-0.215507
1.032
-1.032
0.215507
-0.0398807
0.0398807
1.34358
-1.34358
1.56839
-1.3682
1.3682
-1.56839
0.714754
-0.617639
-0.714754
0.617639
1.27532
-0.512291
-1.27532
0.512291
-0.503307
0.966873
0.503307
-0.966873
-1.46976
0.424537
-0.424537
1.46976
0.825909
-0.252376
-0.825909
0.252376
0.261594
1.0348
-1.0348
-0.261594
1.34561
-1.45994
1.45994
-1.34561
-1.64134
-0.118718
0.118718
1.64134
0.984737
-1.61565
1.61565
-0.984737
0.0381247
-1.79366
1.79366
-0.0381247
0.0427238
-1.62865
-0.0427238
1.62865
-1.18299
1.31515
-1.31515
1.18299
-1.79626
-0.39716
0.39716
1.79626
0.466449
-1.31925
-0.466449
1.31925
0.564746
-0.564746
1.58431
-1.58431
1.5042
-0.966459
0.966459
-1.5042
-0.904942
0.0178443
0.904942
-0.0178443
1.7941
-1.36849
1.36849
-1.7941
-0.586391
0.780999
-0.780999
0.586391
-0.121607
-1.79836
1.79836
0.121607
-0.191287
1.10099
-1.10099
0.191287
0.815016
-0.488225
-0.815016
0.488225
-1.38001
0.45992
-0.45992
1.38001
-0.797303
0.81072
0.797303
-0.81072
-0.608442
0.856426
0.608442
-0.856426
-0.390164
0.789842
-0.789842
0.390164
-0.320671
0.890838
-0.890838
0.320671
1.05764
-1.5854
1.5854
-1.05764
-0.943421
0.881307
0.943421
-0.881307
0.114037
0.920706
-0.920706
-0.114037
-0.62362
0.677374
0.62362
-0.677374
-1.09676
-0.200787
0.200787
1.09676
-0.289855
-1.54182
0.289855
1.54182
-1.00125
0.658625
1.00125
-0.658625
-0.973648
1.28248
-1.28248
0.973648
-1.41706
1.78751
1.41706
-1.78751
0.0723688
1.09719
-1.09719
-0.0723688
-1.00024
0.908529
1.00024
-0.908529
-0.743383
1.36874
-1.36874
0.743383
1.13459
-0.820191
-1.13459
0.820191
-1.79823
-0.332587
1.79823
0.332587
-0.258417
1.41618
-1.41618
0.258417
-0.996219
1.27633
-1.27633
0.996219
-0.408974
0.960571
-0.960571
0.408974
-1.05925
0.404645
-0.404645
1.05925
-0.243741
1.11848
-1.11848
0.243741
-0.510922
1.456
-1.456
0.510922
-1.35172
0.383865
1.35172
-0.383865
0.181165
-0.852247
-0.181165
0.852247
-0.648369
0.583772
0.648369
-0.583772
0.340686
-0.340686
1.92659
-1.92659
-0.63114
1.51105
-1.51105
0.63114
-0.60778
1.13349
0.60778
-1.13349
0.682623
-0.636806
-0.682623
0.636806
-0.84145
0.348411
-0.348411
0.84145
-0.966573
0.323886
-0.323886
0.966573
1.68103
-1.44871
1.44871
-1.68103
0.171258
-0.171258
-1.68706
1.68706
-0.247083
0.968031
-0.968031
0.247083
-0.451565
1.92487
0.451565
-1.92487
-1.10733
0.00822817
-0.00822817
1.10733
1.15884
-1.79285
-1.15884
1.79285
-1.27627
0.243202
-0.243202
1.27627
1.64917
-0.75736
-1.64917
0.75736
0.524908
-1.03459
-0.524908
1.03459
0.730337
-0.777566
-0.730337
0.777566
-0.855212
-0.115779
0.115779
0.855212
-1.35183
1.06996
-1.06996
1.35183
0.689441
-0.849912
-0.689441
0.849912
-1.93221
0.25
-0.25
1.93221
-0.463972
1.01151
-1.01151
0.463972
-0.697533
1.12421
0.697533
-1.12421
-0.891924
0.486264
-0.486264
0.891924
-0.564334
0.659244
0.564334
-0.659244
-1.30932
1.33979
-1.33979
1.30932
-1.19793
0.748073
1.19793
-0.748073
-0.964695
0.00558211
-0.00558211
0.964695
1.14585
-0.666188
-1.14585
0.666188
0.331084
-0.800537
-0.331084
0.800537
0.320939
-1.5428
-0.320939
1.5428
0.842629
-1.82121
1.82121
-0.842629
0.542496
-0.834826
-0.542496
0.834826
-0.316177
-1.65903
1.65903
0.316177
-1.18944
1.17176
-1.17176
1.18944
-1.00747
0.290331
-0.290331
1.00747
-1.03098
1.7244
-1.7244
1.03098
-1.01909
-0.177749
0.177749
1.01909
1.18406
0.207046
-0.207046
-1.18406
-1.11719
1.25481
-1.25481
1.11719
0.397515
-1.3945
-0.397515
1.3945
-1.39684
0.825577
-0.825577
1.39684
-1.21992
0.511537
1.21992
-0.511537
1.44782
-0.928765
0.928765
-1.44782
0.396563
-0.924774
-0.396563
0.924774
-0.896552
1.48956
0.896552
-1.48956
0.68429
-1.18252
-0.68429
1.18252
0.143162
0.811046
-0.811046
-0.143162
-0.966861
0.263033
-0.263033
0.966861
-1.1339
-0.239373
0.239373
1.1339
0.289402
-0.86873
-0.289402
0.86873
-1.07277
0.605727
-0.605727
1.07277
-0.862535
0.102483
-0.102483
0.862535
-1.20271
0.86699
-0.86699
1.20271
-1.10124
0.41777
-0.41777
1.10124
-1.12918
1.39476
-1.39476
1.12918
-1.02498
0.819661
1.02498
-0.819661
-1.00218
0.367715
-0.367715
1.00218
0.468317
-0.68408
-0.468317
0.68408
-0.344158
0.88923
0.344158
-0.88923
-0.200278
0.933862
-0.933862
0.200278
0.472019
-1.09688
1.09688
-0.472019
0.363673
-0.783865
-0.363673
0.783865
-0.86143
0.156629
-0.156629
0.86143
-1.1383
0.769148
1.1383
-0.769148
-0.7753
0.473113
0.7753
-0.473113
1.19259
-0.693769
-1.19259
0.693769
0.108465
0.989747
-0.989747
-0.108465
-1.27719
1.47457
-1.47457
1.27719
-1.93137
1.64696
1.93137
-1.64696
1.09897
-0.150598
-1.09897
0.150598
0.271857
-0.811994
-0.271857
0.811994
1.47156
-0.283611
-1.47156
0.283611
-1.23261
0.0405753
-0.0405753
1.23261
0.0423632
1.17519
-1.17519
-0.0423632
-0.788705
1.2508
-1.2508
0.788705
-0.639955
1.03377
0.639955
-1.03377
-0.120036
1.16612
-1.16612
0.120036
-0.8562
1.18616
-1.18616
0.8562
0.775802
-0.269226
-0.775802
0.269226
0.603807
-0.744565
-0.603807
0.744565
1.92998
-1.66927
1.66927
-1.92998
-0.868156
1.09829
-1.09829
0.868156
1.81643
-1.11903
1.11903
-1.81643
0.653336
-1.92832
-0.653336
1.92832
-0.538084
0.738709
0.538084
-0.738709
1.71171
-1.77607
1.77607
-1.71171
-1.19683
0.419675
-0.419675
1.19683
0.694394
-1.2817
-0.694394
1.2817
0.319737
-0.319737
-1.25332
1.25332
-1.26849
1.24207
-1.24207
1.26849
-0.591955
0.574449
0.591955
-0.574449